+ 1 /NodeList/2/DeviceList/1/$ns3::PointToPointNetDevice/TxQueue/Enqueue ns3::PppHeader (Point-to-Point Protocol: IP (0x0021)) ns3::Ipv4Header (tos 0x0 DSCP Default ECN Not-ECT ttl 64 id 0 protocol 6 offset (bytes) 0 flags [none] length: 56 1.0.0.2 > 7.0.0.2) ns3::TcpHeader (49153 > 2000 [SYN] Seq=0 Ack=0 Win=65535 ns3::TcpOptionTS(1000;0) ns3::TcpOptionWinScale(2) ns3::TcpOptionSackPermitted([sack_perm]) ns3::TcpOptionEnd(EOL))
- 1 /NodeList/2/DeviceList/1/$ns3::PointToPointNetDevice/TxQueue/Dequeue ns3::PppHeader (Point-to-Point Protocol: IP (0x0021)) ns3::Ipv4Header (tos 0x0 DSCP Default ECN Not-ECT ttl 64 id 0 protocol 6 offset (bytes) 0 flags [none] length: 56 1.0.0.2 > 7.0.0.2) ns3::TcpHeader (49153 > 2000 [SYN] Seq=0 Ack=0 Win=65535 ns3::TcpOptionTS(1000;0) ns3::TcpOptionWinScale(2) ns3::TcpOptionSackPermitted([sack_perm]) ns3::TcpOptionEnd(EOL))
r 1.00001 /NodeList/1/DeviceList/2/$ns3::PointToPointNetDevice/MacRx ns3::PppHeader (Point-to-Point Protocol: IP (0x0021)) ns3::Ipv4Header (tos 0x0 DSCP Default ECN Not-ECT ttl 64 id 0 protocol 6 offset (bytes) 0 flags [none] length: 56 1.0.0.2 > 7.0.0.2) ns3::TcpHeader (49153 > 2000 [SYN] Seq=0 Ack=0 Win=65535 ns3::TcpOptionTS(1000;0) ns3::TcpOptionWinScale(2) ns3::TcpOptionSackPermitted([sack_perm]) ns3::TcpOptionEnd(EOL))
+ 1.00001 /NodeList/1/DeviceList/3/$ns3::PointToPointNetDevice/TxQueue/Enqueue ns3::PppHeader (Point-to-Point Protocol: IP (0x0021)) ns3::Ipv4Header (tos 0x0 DSCP Default ECN Not-ECT ttl 64 id 0 protocol 17 offset (bytes) 0 flags [none] length: 96 10.0.0.6 > 10.0.0.5) ns3::UdpHeader (length: 76 2152 > 2152) ns3::GtpuHeader ( version=1 [ PT  S  PN ], messageType=255, length=60, teid=2, sequenceNumber=0, nPduNumber=0, nextExtensionType=0) ns3::Ipv4Header (tos 0x0 DSCP Default ECN Not-ECT ttl 63 id 0 protocol 6 offset (bytes) 0 flags [none] length: 56 1.0.0.2 > 7.0.0.2) ns3::TcpHeader (49153 > 2000 [SYN] Seq=0 Ack=0 Win=65535 ns3::TcpOptionTS(1000;0) ns3::TcpOptionWinScale(2) ns3::TcpOptionSackPermitted([sack_perm]) ns3::TcpOptionEnd(EOL))
- 1.00001 /NodeList/1/DeviceList/3/$ns3::PointToPointNetDevice/TxQueue/Dequeue ns3::PppHeader (Point-to-Point Protocol: IP (0x0021)) ns3::Ipv4Header (tos 0x0 DSCP Default ECN Not-ECT ttl 64 id 0 protocol 17 offset (bytes) 0 flags [none] length: 96 10.0.0.6 > 10.0.0.5) ns3::UdpHeader (length: 76 2152 > 2152) ns3::GtpuHeader ( version=1 [ PT  S  PN ], messageType=255, length=60, teid=2, sequenceNumber=0, nPduNumber=0, nextExtensionType=0) ns3::Ipv4Header (tos 0x0 DSCP Default ECN Not-ECT ttl 63 id 0 protocol 6 offset (bytes) 0 flags [none] length: 56 1.0.0.2 > 7.0.0.2) ns3::TcpHeader (49153 > 2000 [SYN] Seq=0 Ack=0 Win=65535 ns3::TcpOptionTS(1000;0) ns3::TcpOptionWinScale(2) ns3::TcpOptionSackPermitted([sack_perm]) ns3::TcpOptionEnd(EOL))
r 1.00001 /NodeList/3/DeviceList/2/$ns3::PointToPointNetDevice/MacRx ns3::PppHeader (Point-to-Point Protocol: IP (0x0021)) ns3::Ipv4Header (tos 0x0 DSCP Default ECN Not-ECT ttl 64 id 0 protocol 17 offset (bytes) 0 flags [none] length: 96 10.0.0.6 > 10.0.0.5) ns3::UdpHeader (length: 76 2152 > 2152) ns3::GtpuHeader ( version=1 [ PT  S  PN ], messageType=255, length=60, teid=2, sequenceNumber=0, nPduNumber=0, nextExtensionType=0) ns3::Ipv4Header (tos 0x0 DSCP Default ECN Not-ECT ttl 63 id 0 protocol 6 offset (bytes) 0 flags [none] length: 56 1.0.0.2 > 7.0.0.2) ns3::TcpHeader (49153 > 2000 [SYN] Seq=0 Ack=0 Win=65535 ns3::TcpOptionTS(1000;0) ns3::TcpOptionWinScale(2) ns3::TcpOptionSackPermitted([sack_perm]) ns3::TcpOptionEnd(EOL))
+ 1.01193 /NodeList/3/DeviceList/2/$ns3::PointToPointNetDevice/TxQueue/Enqueue ns3::PppHeader (Point-to-Point Protocol: IP (0x0021)) ns3::Ipv4Header (tos 0x0 DSCP Default ECN Not-ECT ttl 64 id 0 protocol 17 offset (bytes) 0 flags [none] length: 96 10.0.0.5 > 10.0.0.6) ns3::UdpHeader (length: 76 2152 > 2152) ns3::GtpuHeader ( version=1 [ PT  S  PN ], messageType=255, length=60, teid=2, sequenceNumber=0, nPduNumber=0, nextExtensionType=0) ns3::Ipv4Header (tos 0x0 DSCP Default ECN Not-ECT ttl 64 id 0 protocol 6 offset (bytes) 0 flags [none] length: 56 7.0.0.2 > 1.0.0.2) ns3::TcpHeader (49153 > 110 [SYN] Seq=0 Ack=0 Win=65535 ns3::TcpOptionTS(1000;0) ns3::TcpOptionWinScale(2) ns3::TcpOptionSackPermitted([sack_perm]) ns3::TcpOptionEnd(EOL))
- 1.01193 /NodeList/3/DeviceList/2/$ns3::PointToPointNetDevice/TxQueue/Dequeue ns3::PppHeader (Point-to-Point Protocol: IP (0x0021)) ns3::Ipv4Header (tos 0x0 DSCP Default ECN Not-ECT ttl 64 id 0 protocol 17 offset (bytes) 0 flags [none] length: 96 10.0.0.5 > 10.0.0.6) ns3::UdpHeader (length: 76 2152 > 2152) ns3::GtpuHeader ( version=1 [ PT  S  PN ], messageType=255, length=60, teid=2, sequenceNumber=0, nPduNumber=0, nextExtensionType=0) ns3::Ipv4Header (tos 0x0 DSCP Default ECN Not-ECT ttl 64 id 0 protocol 6 offset (bytes) 0 flags [none] length: 56 7.0.0.2 > 1.0.0.2) ns3::TcpHeader (49153 > 110 [SYN] Seq=0 Ack=0 Win=65535 ns3::TcpOptionTS(1000;0) ns3::TcpOptionWinScale(2) ns3::TcpOptionSackPermitted([sack_perm]) ns3::TcpOptionEnd(EOL))
+ 1.01193 /NodeList/3/DeviceList/2/$ns3::PointToPointNetDevice/TxQueue/Enqueue ns3::PppHeader (Point-to-Point Protocol: IP (0x0021)) ns3::Ipv4Header (tos 0x0 DSCP Default ECN Not-ECT ttl 64 id 1 protocol 17 offset (bytes) 0 flags [none] length: 96 10.0.0.5 > 10.0.0.6) ns3::UdpHeader (length: 76 2152 > 2152) ns3::GtpuHeader ( version=1 [ PT  S  PN ], messageType=255, length=60, teid=2, sequenceNumber=0, nPduNumber=0, nextExtensionType=0) ns3::Ipv4Header (tos 0x0 DSCP Default ECN Not-ECT ttl 64 id 1 protocol 6 offset (bytes) 0 flags [none] length: 56 7.0.0.2 > 1.0.0.2) ns3::TcpHeader (2000 > 49153 [SYN|ACK] Seq=0 Ack=1 Win=65535 ns3::TcpOptionTS(1003;1000) ns3::TcpOptionWinScale(2) ns3::TcpOptionSackPermitted([sack_perm]) ns3::TcpOptionEnd(EOL))
- 1.01193 /NodeList/3/DeviceList/2/$ns3::PointToPointNetDevice/TxQueue/Dequeue ns3::PppHeader (Point-to-Point Protocol: IP (0x0021)) ns3::Ipv4Header (tos 0x0 DSCP Default ECN Not-ECT ttl 64 id 1 protocol 17 offset (bytes) 0 flags [none] length: 96 10.0.0.5 > 10.0.0.6) ns3::UdpHeader (length: 76 2152 > 2152) ns3::GtpuHeader ( version=1 [ PT  S  PN ], messageType=255, length=60, teid=2, sequenceNumber=0, nPduNumber=0, nextExtensionType=0) ns3::Ipv4Header (tos 0x0 DSCP Default ECN Not-ECT ttl 64 id 1 protocol 6 offset (bytes) 0 flags [none] length: 56 7.0.0.2 > 1.0.0.2) ns3::TcpHeader (2000 > 49153 [SYN|ACK] Seq=0 Ack=1 Win=65535 ns3::TcpOptionTS(1003;1000) ns3::TcpOptionWinScale(2) ns3::TcpOptionSackPermitted([sack_perm]) ns3::TcpOptionEnd(EOL))
r 1.01193 /NodeList/1/DeviceList/3/$ns3::PointToPointNetDevice/MacRx ns3::PppHeader (Point-to-Point Protocol: IP (0x0021)) ns3::Ipv4Header (tos 0x0 DSCP Default ECN Not-ECT ttl 64 id 0 protocol 17 offset (bytes) 0 flags [none] length: 96 10.0.0.5 > 10.0.0.6) ns3::UdpHeader (length: 76 2152 > 2152) ns3::GtpuHeader ( version=1 [ PT  S  PN ], messageType=255, length=60, teid=2, sequenceNumber=0, nPduNumber=0, nextExtensionType=0) ns3::Ipv4Header (tos 0x0 DSCP Default ECN Not-ECT ttl 64 id 0 protocol 6 offset (bytes) 0 flags [none] length: 56 7.0.0.2 > 1.0.0.2) ns3::TcpHeader (49153 > 110 [SYN] Seq=0 Ack=0 Win=65535 ns3::TcpOptionTS(1000;0) ns3::TcpOptionWinScale(2) ns3::TcpOptionSackPermitted([sack_perm]) ns3::TcpOptionEnd(EOL))
+ 1.01193 /NodeList/1/DeviceList/2/$ns3::PointToPointNetDevice/TxQueue/Enqueue ns3::PppHeader (Point-to-Point Protocol: IP (0x0021)) ns3::Ipv4Header (tos 0x0 DSCP Default ECN Not-ECT ttl 63 id 0 protocol 6 offset (bytes) 0 flags [none] length: 56 7.0.0.2 > 1.0.0.2) ns3::TcpHeader (49153 > 110 [SYN] Seq=0 Ack=0 Win=65535 ns3::TcpOptionTS(1000;0) ns3::TcpOptionWinScale(2) ns3::TcpOptionSackPermitted([sack_perm]) ns3::TcpOptionEnd(EOL))
- 1.01193 /NodeList/1/DeviceList/2/$ns3::PointToPointNetDevice/TxQueue/Dequeue ns3::PppHeader (Point-to-Point Protocol: IP (0x0021)) ns3::Ipv4Header (tos 0x0 DSCP Default ECN Not-ECT ttl 63 id 0 protocol 6 offset (bytes) 0 flags [none] length: 56 7.0.0.2 > 1.0.0.2) ns3::TcpHeader (49153 > 110 [SYN] Seq=0 Ack=0 Win=65535 ns3::TcpOptionTS(1000;0) ns3::TcpOptionWinScale(2) ns3::TcpOptionSackPermitted([sack_perm]) ns3::TcpOptionEnd(EOL))
r 1.01193 /NodeList/1/DeviceList/3/$ns3::PointToPointNetDevice/MacRx ns3::PppHeader (Point-to-Point Protocol: IP (0x0021)) ns3::Ipv4Header (tos 0x0 DSCP Default ECN Not-ECT ttl 64 id 1 protocol 17 offset (bytes) 0 flags [none] length: 96 10.0.0.5 > 10.0.0.6) ns3::UdpHeader (length: 76 2152 > 2152) ns3::GtpuHeader ( version=1 [ PT  S  PN ], messageType=255, length=60, teid=2, sequenceNumber=0, nPduNumber=0, nextExtensionType=0) ns3::Ipv4Header (tos 0x0 DSCP Default ECN Not-ECT ttl 64 id 1 protocol 6 offset (bytes) 0 flags [none] length: 56 7.0.0.2 > 1.0.0.2) ns3::TcpHeader (2000 > 49153 [SYN|ACK] Seq=0 Ack=1 Win=65535 ns3::TcpOptionTS(1003;1000) ns3::TcpOptionWinScale(2) ns3::TcpOptionSackPermitted([sack_perm]) ns3::TcpOptionEnd(EOL))
+ 1.01193 /NodeList/1/DeviceList/2/$ns3::PointToPointNetDevice/TxQueue/Enqueue ns3::PppHeader (Point-to-Point Protocol: IP (0x0021)) ns3::Ipv4Header (tos 0x0 DSCP Default ECN Not-ECT ttl 63 id 1 protocol 6 offset (bytes) 0 flags [none] length: 56 7.0.0.2 > 1.0.0.2) ns3::TcpHeader (2000 > 49153 [SYN|ACK] Seq=0 Ack=1 Win=65535 ns3::TcpOptionTS(1003;1000) ns3::TcpOptionWinScale(2) ns3::TcpOptionSackPermitted([sack_perm]) ns3::TcpOptionEnd(EOL))
- 1.01193 /NodeList/1/DeviceList/2/$ns3::PointToPointNetDevice/TxQueue/Dequeue ns3::PppHeader (Point-to-Point Protocol: IP (0x0021)) ns3::Ipv4Header (tos 0x0 DSCP Default ECN Not-ECT ttl 63 id 1 protocol 6 offset (bytes) 0 flags [none] length: 56 7.0.0.2 > 1.0.0.2) ns3::TcpHeader (2000 > 49153 [SYN|ACK] Seq=0 Ack=1 Win=65535 ns3::TcpOptionTS(1003;1000) ns3::TcpOptionWinScale(2) ns3::TcpOptionSackPermitted([sack_perm]) ns3::TcpOptionEnd(EOL))
r 1.01194 /NodeList/2/DeviceList/1/$ns3::PointToPointNetDevice/MacRx ns3::PppHeader (Point-to-Point Protocol: IP (0x0021)) ns3::Ipv4Header (tos 0x0 DSCP Default ECN Not-ECT ttl 63 id 0 protocol 6 offset (bytes) 0 flags [none] length: 56 7.0.0.2 > 1.0.0.2) ns3::TcpHeader (49153 > 110 [SYN] Seq=0 Ack=0 Win=65535 ns3::TcpOptionTS(1000;0) ns3::TcpOptionWinScale(2) ns3::TcpOptionSackPermitted([sack_perm]) ns3::TcpOptionEnd(EOL))
+ 1.01194 /NodeList/2/DeviceList/1/$ns3::PointToPointNetDevice/TxQueue/Enqueue ns3::PppHeader (Point-to-Point Protocol: IP (0x0021)) ns3::Ipv4Header (tos 0x0 DSCP Default ECN Not-ECT ttl 64 id 1 protocol 6 offset (bytes) 0 flags [none] length: 56 1.0.0.2 > 7.0.0.2) ns3::TcpHeader (110 > 49153 [SYN|ACK] Seq=0 Ack=1 Win=65535 ns3::TcpOptionTS(1011;1000) ns3::TcpOptionWinScale(2) ns3::TcpOptionSackPermitted([sack_perm]) ns3::TcpOptionEnd(EOL))
- 1.01194 /NodeList/2/DeviceList/1/$ns3::PointToPointNetDevice/TxQueue/Dequeue ns3::PppHeader (Point-to-Point Protocol: IP (0x0021)) ns3::Ipv4Header (tos 0x0 DSCP Default ECN Not-ECT ttl 64 id 1 protocol 6 offset (bytes) 0 flags [none] length: 56 1.0.0.2 > 7.0.0.2) ns3::TcpHeader (110 > 49153 [SYN|ACK] Seq=0 Ack=1 Win=65535 ns3::TcpOptionTS(1011;1000) ns3::TcpOptionWinScale(2) ns3::TcpOptionSackPermitted([sack_perm]) ns3::TcpOptionEnd(EOL))
r 1.01194 /NodeList/2/DeviceList/1/$ns3::PointToPointNetDevice/MacRx ns3::PppHeader (Point-to-Point Protocol: IP (0x0021)) ns3::Ipv4Header (tos 0x0 DSCP Default ECN Not-ECT ttl 63 id 1 protocol 6 offset (bytes) 0 flags [none] length: 56 7.0.0.2 > 1.0.0.2) ns3::TcpHeader (2000 > 49153 [SYN|ACK] Seq=0 Ack=1 Win=65535 ns3::TcpOptionTS(1003;1000) ns3::TcpOptionWinScale(2) ns3::TcpOptionSackPermitted([sack_perm]) ns3::TcpOptionEnd(EOL))
+ 1.01194 /NodeList/2/DeviceList/1/$ns3::PointToPointNetDevice/TxQueue/Enqueue ns3::PppHeader (Point-to-Point Protocol: IP (0x0021)) ns3::Ipv4Header (tos 0x0 DSCP Default ECN Not-ECT ttl 64 id 2 protocol 6 offset (bytes) 0 flags [none] length: 52 1.0.0.2 > 7.0.0.2) ns3::TcpHeader (49153 > 2000 [ACK] Seq=1 Ack=1 Win=32768 ns3::TcpOptionTS(1011;1003) ns3::TcpOptionEnd(EOL))
- 1.01194 /NodeList/2/DeviceList/1/$ns3::PointToPointNetDevice/TxQueue/Dequeue ns3::PppHeader (Point-to-Point Protocol: IP (0x0021)) ns3::Ipv4Header (tos 0x0 DSCP Default ECN Not-ECT ttl 64 id 2 protocol 6 offset (bytes) 0 flags [none] length: 52 1.0.0.2 > 7.0.0.2) ns3::TcpHeader (49153 > 2000 [ACK] Seq=1 Ack=1 Win=32768 ns3::TcpOptionTS(1011;1003) ns3::TcpOptionEnd(EOL))
r 1.01195 /NodeList/1/DeviceList/2/$ns3::PointToPointNetDevice/MacRx ns3::PppHeader (Point-to-Point Protocol: IP (0x0021)) ns3::Ipv4Header (tos 0x0 DSCP Default ECN Not-ECT ttl 64 id 1 protocol 6 offset (bytes) 0 flags [none] length: 56 1.0.0.2 > 7.0.0.2) ns3::TcpHeader (110 > 49153 [SYN|ACK] Seq=0 Ack=1 Win=65535 ns3::TcpOptionTS(1011;1000) ns3::TcpOptionWinScale(2) ns3::TcpOptionSackPermitted([sack_perm]) ns3::TcpOptionEnd(EOL))
+ 1.01195 /NodeList/1/DeviceList/3/$ns3::PointToPointNetDevice/TxQueue/Enqueue ns3::PppHeader (Point-to-Point Protocol: IP (0x0021)) ns3::Ipv4Header (tos 0x0 DSCP Default ECN Not-ECT ttl 64 id 1 protocol 17 offset (bytes) 0 flags [none] length: 96 10.0.0.6 > 10.0.0.5) ns3::UdpHeader (length: 76 2152 > 2152) ns3::GtpuHeader ( version=1 [ PT  S  PN ], messageType=255, length=60, teid=2, sequenceNumber=0, nPduNumber=0, nextExtensionType=0) ns3::Ipv4Header (tos 0x0 DSCP Default ECN Not-ECT ttl 63 id 1 protocol 6 offset (bytes) 0 flags [none] length: 56 1.0.0.2 > 7.0.0.2) ns3::TcpHeader (110 > 49153 [SYN|ACK] Seq=0 Ack=1 Win=65535 ns3::TcpOptionTS(1011;1000) ns3::TcpOptionWinScale(2) ns3::TcpOptionSackPermitted([sack_perm]) ns3::TcpOptionEnd(EOL))
- 1.01195 /NodeList/1/DeviceList/3/$ns3::PointToPointNetDevice/TxQueue/Dequeue ns3::PppHeader (Point-to-Point Protocol: IP (0x0021)) ns3::Ipv4Header (tos 0x0 DSCP Default ECN Not-ECT ttl 64 id 1 protocol 17 offset (bytes) 0 flags [none] length: 96 10.0.0.6 > 10.0.0.5) ns3::UdpHeader (length: 76 2152 > 2152) ns3::GtpuHeader ( version=1 [ PT  S  PN ], messageType=255, length=60, teid=2, sequenceNumber=0, nPduNumber=0, nextExtensionType=0) ns3::Ipv4Header (tos 0x0 DSCP Default ECN Not-ECT ttl 63 id 1 protocol 6 offset (bytes) 0 flags [none] length: 56 1.0.0.2 > 7.0.0.2) ns3::TcpHeader (110 > 49153 [SYN|ACK] Seq=0 Ack=1 Win=65535 ns3::TcpOptionTS(1011;1000) ns3::TcpOptionWinScale(2) ns3::TcpOptionSackPermitted([sack_perm]) ns3::TcpOptionEnd(EOL))
r 1.01195 /NodeList/1/DeviceList/2/$ns3::PointToPointNetDevice/MacRx ns3::PppHeader (Point-to-Point Protocol: IP (0x0021)) ns3::Ipv4Header (tos 0x0 DSCP Default ECN Not-ECT ttl 64 id 2 protocol 6 offset (bytes) 0 flags [none] length: 52 1.0.0.2 > 7.0.0.2) ns3::TcpHeader (49153 > 2000 [ACK] Seq=1 Ack=1 Win=32768 ns3::TcpOptionTS(1011;1003) ns3::TcpOptionEnd(EOL))
+ 1.01195 /NodeList/1/DeviceList/3/$ns3::PointToPointNetDevice/TxQueue/Enqueue ns3::PppHeader (Point-to-Point Protocol: IP (0x0021)) ns3::Ipv4Header (tos 0x0 DSCP Default ECN Not-ECT ttl 64 id 2 protocol 17 offset (bytes) 0 flags [none] length: 92 10.0.0.6 > 10.0.0.5) ns3::UdpHeader (length: 72 2152 > 2152) ns3::GtpuHeader ( version=1 [ PT  S  PN ], messageType=255, length=56, teid=2, sequenceNumber=0, nPduNumber=0, nextExtensionType=0) ns3::Ipv4Header (tos 0x0 DSCP Default ECN Not-ECT ttl 63 id 2 protocol 6 offset (bytes) 0 flags [none] length: 52 1.0.0.2 > 7.0.0.2) ns3::TcpHeader (49153 > 2000 [ACK] Seq=1 Ack=1 Win=32768 ns3::TcpOptionTS(1011;1003) ns3::TcpOptionEnd(EOL))
- 1.01195 /NodeList/1/DeviceList/3/$ns3::PointToPointNetDevice/TxQueue/Dequeue ns3::PppHeader (Point-to-Point Protocol: IP (0x0021)) ns3::Ipv4Header (tos 0x0 DSCP Default ECN Not-ECT ttl 64 id 2 protocol 17 offset (bytes) 0 flags [none] length: 92 10.0.0.6 > 10.0.0.5) ns3::UdpHeader (length: 72 2152 > 2152) ns3::GtpuHeader ( version=1 [ PT  S  PN ], messageType=255, length=56, teid=2, sequenceNumber=0, nPduNumber=0, nextExtensionType=0) ns3::Ipv4Header (tos 0x0 DSCP Default ECN Not-ECT ttl 63 id 2 protocol 6 offset (bytes) 0 flags [none] length: 52 1.0.0.2 > 7.0.0.2) ns3::TcpHeader (49153 > 2000 [ACK] Seq=1 Ack=1 Win=32768 ns3::TcpOptionTS(1011;1003) ns3::TcpOptionEnd(EOL))
r 1.01195 /NodeList/3/DeviceList/2/$ns3::PointToPointNetDevice/MacRx ns3::PppHeader (Point-to-Point Protocol: IP (0x0021)) ns3::Ipv4Header (tos 0x0 DSCP Default ECN Not-ECT ttl 64 id 1 protocol 17 offset (bytes) 0 flags [none] length: 96 10.0.0.6 > 10.0.0.5) ns3::UdpHeader (length: 76 2152 > 2152) ns3::GtpuHeader ( version=1 [ PT  S  PN ], messageType=255, length=60, teid=2, sequenceNumber=0, nPduNumber=0, nextExtensionType=0) ns3::Ipv4Header (tos 0x0 DSCP Default ECN Not-ECT ttl 63 id 1 protocol 6 offset (bytes) 0 flags [none] length: 56 1.0.0.2 > 7.0.0.2) ns3::TcpHeader (110 > 49153 [SYN|ACK] Seq=0 Ack=1 Win=65535 ns3::TcpOptionTS(1011;1000) ns3::TcpOptionWinScale(2) ns3::TcpOptionSackPermitted([sack_perm]) ns3::TcpOptionEnd(EOL))
r 1.01195 /NodeList/3/DeviceList/2/$ns3::PointToPointNetDevice/MacRx ns3::PppHeader (Point-to-Point Protocol: IP (0x0021)) ns3::Ipv4Header (tos 0x0 DSCP Default ECN Not-ECT ttl 64 id 2 protocol 17 offset (bytes) 0 flags [none] length: 92 10.0.0.6 > 10.0.0.5) ns3::UdpHeader (length: 72 2152 > 2152) ns3::GtpuHeader ( version=1 [ PT  S  PN ], messageType=255, length=56, teid=2, sequenceNumber=0, nPduNumber=0, nextExtensionType=0) ns3::Ipv4Header (tos 0x0 DSCP Default ECN Not-ECT ttl 63 id 2 protocol 6 offset (bytes) 0 flags [none] length: 52 1.0.0.2 > 7.0.0.2) ns3::TcpHeader (49153 > 2000 [ACK] Seq=1 Ack=1 Win=32768 ns3::TcpOptionTS(1011;1003) ns3::TcpOptionEnd(EOL))
+ 1.04793 /NodeList/3/DeviceList/2/$ns3::PointToPointNetDevice/TxQueue/Enqueue ns3::PppHeader (Point-to-Point Protocol: IP (0x0021)) ns3::Ipv4Header (tos 0x0 DSCP Default ECN Not-ECT ttl 64 id 2 protocol 17 offset (bytes) 0 flags [none] length: 92 10.0.0.5 > 10.0.0.6) ns3::UdpHeader (length: 72 2152 > 2152) ns3::GtpuHeader ( version=1 [ PT  S  PN ], messageType=255, length=56, teid=2, sequenceNumber=0, nPduNumber=0, nextExtensionType=0) ns3::Ipv4Header (tos 0x0 DSCP Default ECN Not-ECT ttl 64 id 2 protocol 6 offset (bytes) 0 flags [none] length: 52 7.0.0.2 > 1.0.0.2) ns3::TcpHeader (49153 > 110 [ACK] Seq=1 Ack=1 Win=32768 ns3::TcpOptionTS(1015;1011) ns3::TcpOptionEnd(EOL))
- 1.04793 /NodeList/3/DeviceList/2/$ns3::PointToPointNetDevice/TxQueue/Dequeue ns3::PppHeader (Point-to-Point Protocol: IP (0x0021)) ns3::Ipv4Header (tos 0x0 DSCP Default ECN Not-ECT ttl 64 id 2 protocol 17 offset (bytes) 0 flags [none] length: 92 10.0.0.5 > 10.0.0.6) ns3::UdpHeader (length: 72 2152 > 2152) ns3::GtpuHeader ( version=1 [ PT  S  PN ], messageType=255, length=56, teid=2, sequenceNumber=0, nPduNumber=0, nextExtensionType=0) ns3::Ipv4Header (tos 0x0 DSCP Default ECN Not-ECT ttl 64 id 2 protocol 6 offset (bytes) 0 flags [none] length: 52 7.0.0.2 > 1.0.0.2) ns3::TcpHeader (49153 > 110 [ACK] Seq=1 Ack=1 Win=32768 ns3::TcpOptionTS(1015;1011) ns3::TcpOptionEnd(EOL))
r 1.04793 /NodeList/1/DeviceList/3/$ns3::PointToPointNetDevice/MacRx ns3::PppHeader (Point-to-Point Protocol: IP (0x0021)) ns3::Ipv4Header (tos 0x0 DSCP Default ECN Not-ECT ttl 64 id 2 protocol 17 offset (bytes) 0 flags [none] length: 92 10.0.0.5 > 10.0.0.6) ns3::UdpHeader (length: 72 2152 > 2152) ns3::GtpuHeader ( version=1 [ PT  S  PN ], messageType=255, length=56, teid=2, sequenceNumber=0, nPduNumber=0, nextExtensionType=0) ns3::Ipv4Header (tos 0x0 DSCP Default ECN Not-ECT ttl 64 id 2 protocol 6 offset (bytes) 0 flags [none] length: 52 7.0.0.2 > 1.0.0.2) ns3::TcpHeader (49153 > 110 [ACK] Seq=1 Ack=1 Win=32768 ns3::TcpOptionTS(1015;1011) ns3::TcpOptionEnd(EOL))
+ 1.04793 /NodeList/1/DeviceList/2/$ns3::PointToPointNetDevice/TxQueue/Enqueue ns3::PppHeader (Point-to-Point Protocol: IP (0x0021)) ns3::Ipv4Header (tos 0x0 DSCP Default ECN Not-ECT ttl 63 id 2 protocol 6 offset (bytes) 0 flags [none] length: 52 7.0.0.2 > 1.0.0.2) ns3::TcpHeader (49153 > 110 [ACK] Seq=1 Ack=1 Win=32768 ns3::TcpOptionTS(1015;1011) ns3::TcpOptionEnd(EOL))
- 1.04793 /NodeList/1/DeviceList/2/$ns3::PointToPointNetDevice/TxQueue/Dequeue ns3::PppHeader (Point-to-Point Protocol: IP (0x0021)) ns3::Ipv4Header (tos 0x0 DSCP Default ECN Not-ECT ttl 63 id 2 protocol 6 offset (bytes) 0 flags [none] length: 52 7.0.0.2 > 1.0.0.2) ns3::TcpHeader (49153 > 110 [ACK] Seq=1 Ack=1 Win=32768 ns3::TcpOptionTS(1015;1011) ns3::TcpOptionEnd(EOL))
r 1.04794 /NodeList/2/DeviceList/1/$ns3::PointToPointNetDevice/MacRx ns3::PppHeader (Point-to-Point Protocol: IP (0x0021)) ns3::Ipv4Header (tos 0x0 DSCP Default ECN Not-ECT ttl 63 id 2 protocol 6 offset (bytes) 0 flags [none] length: 52 7.0.0.2 > 1.0.0.2) ns3::TcpHeader (49153 > 110 [ACK] Seq=1 Ack=1 Win=32768 ns3::TcpOptionTS(1015;1011) ns3::TcpOptionEnd(EOL))
+ 6.44321 /NodeList/2/DeviceList/1/$ns3::PointToPointNetDevice/TxQueue/Enqueue ns3::PppHeader (Point-to-Point Protocol: IP (0x0021)) ns3::Ipv4Header (tos 0x0 DSCP Default ECN Not-ECT ttl 64 id 3 protocol 6 offset (bytes) 0 flags [none] length: 1500 1.0.0.2 > 7.0.0.2) ns3::TcpHeader (49153 > 2000 [ACK] Seq=1 Ack=1 Win=32768 ns3::TcpOptionTS(6443;1003) ns3::TcpOptionEnd(EOL)) Payload (size=1448)
- 6.44321 /NodeList/2/DeviceList/1/$ns3::PointToPointNetDevice/TxQueue/Dequeue ns3::PppHeader (Point-to-Point Protocol: IP (0x0021)) ns3::Ipv4Header (tos 0x0 DSCP Default ECN Not-ECT ttl 64 id 3 protocol 6 offset (bytes) 0 flags [none] length: 1500 1.0.0.2 > 7.0.0.2) ns3::TcpHeader (49153 > 2000 [ACK] Seq=1 Ack=1 Win=32768 ns3::TcpOptionTS(6443;1003) ns3::TcpOptionEnd(EOL)) Payload (size=1448)
r 6.44322 /NodeList/1/DeviceList/2/$ns3::PointToPointNetDevice/MacRx ns3::PppHeader (Point-to-Point Protocol: IP (0x0021)) ns3::Ipv4Header (tos 0x0 DSCP Default ECN Not-ECT ttl 64 id 3 protocol 6 offset (bytes) 0 flags [none] length: 1500 1.0.0.2 > 7.0.0.2) ns3::TcpHeader (49153 > 2000 [ACK] Seq=1 Ack=1 Win=32768 ns3::TcpOptionTS(6443;1003) ns3::TcpOptionEnd(EOL)) Payload (size=1448)
+ 6.44322 /NodeList/1/DeviceList/3/$ns3::PointToPointNetDevice/TxQueue/Enqueue ns3::PppHeader (Point-to-Point Protocol: IP (0x0021)) ns3::Ipv4Header (tos 0x0 DSCP Default ECN Not-ECT ttl 64 id 3 protocol 17 offset (bytes) 0 flags [none] length: 1540 10.0.0.6 > 10.0.0.5) ns3::UdpHeader (length: 1520 2152 > 2152) ns3::GtpuHeader ( version=1 [ PT  S  PN ], messageType=255, length=1504, teid=2, sequenceNumber=0, nPduNumber=0, nextExtensionType=0) ns3::Ipv4Header (tos 0x0 DSCP Default ECN Not-ECT ttl 63 id 3 protocol 6 offset (bytes) 0 flags [none] length: 1500 1.0.0.2 > 7.0.0.2) ns3::TcpHeader (49153 > 2000 [ACK] Seq=1 Ack=1 Win=32768 ns3::TcpOptionTS(6443;1003) ns3::TcpOptionEnd(EOL)) Payload (size=1448)
- 6.44322 /NodeList/1/DeviceList/3/$ns3::PointToPointNetDevice/TxQueue/Dequeue ns3::PppHeader (Point-to-Point Protocol: IP (0x0021)) ns3::Ipv4Header (tos 0x0 DSCP Default ECN Not-ECT ttl 64 id 3 protocol 17 offset (bytes) 0 flags [none] length: 1540 10.0.0.6 > 10.0.0.5) ns3::UdpHeader (length: 1520 2152 > 2152) ns3::GtpuHeader ( version=1 [ PT  S  PN ], messageType=255, length=1504, teid=2, sequenceNumber=0, nPduNumber=0, nextExtensionType=0) ns3::Ipv4Header (tos 0x0 DSCP Default ECN Not-ECT ttl 63 id 3 protocol 6 offset (bytes) 0 flags [none] length: 1500 1.0.0.2 > 7.0.0.2) ns3::TcpHeader (49153 > 2000 [ACK] Seq=1 Ack=1 Win=32768 ns3::TcpOptionTS(6443;1003) ns3::TcpOptionEnd(EOL)) Payload (size=1448)
r 6.44323 /NodeList/3/DeviceList/2/$ns3::PointToPointNetDevice/MacRx ns3::PppHeader (Point-to-Point Protocol: IP (0x0021)) ns3::Ipv4Header (tos 0x0 DSCP Default ECN Not-ECT ttl 64 id 3 protocol 17 offset (bytes) 0 flags [none] length: 1540 10.0.0.6 > 10.0.0.5) ns3::UdpHeader (length: 1520 2152 > 2152) ns3::GtpuHeader ( version=1 [ PT  S  PN ], messageType=255, length=1504, teid=2, sequenceNumber=0, nPduNumber=0, nextExtensionType=0) ns3::Ipv4Header (tos 0x0 DSCP Default ECN Not-ECT ttl 63 id 3 protocol 6 offset (bytes) 0 flags [none] length: 1500 1.0.0.2 > 7.0.0.2) ns3::TcpHeader (49153 > 2000 [ACK] Seq=1 Ack=1 Win=32768 ns3::TcpOptionTS(6443;1003) ns3::TcpOptionEnd(EOL)) Payload (size=1448)
+ 6.45893 /NodeList/3/DeviceList/2/$ns3::PointToPointNetDevice/TxQueue/Enqueue ns3::PppHeader (Point-to-Point Protocol: IP (0x0021)) ns3::Ipv4Header (tos 0x0 DSCP Default ECN Not-ECT ttl 64 id 3 protocol 17 offset (bytes) 0 flags [none] length: 92 10.0.0.5 > 10.0.0.6) ns3::UdpHeader (length: 72 2152 > 2152) ns3::GtpuHeader ( version=1 [ PT  S  PN ], messageType=255, length=56, teid=2, sequenceNumber=0, nPduNumber=0, nextExtensionType=0) ns3::Ipv4Header (tos 0x0 DSCP Default ECN Not-ECT ttl 64 id 3 protocol 6 offset (bytes) 0 flags [none] length: 52 7.0.0.2 > 1.0.0.2) ns3::TcpHeader (2000 > 49153 [ACK] Seq=1 Ack=1449 Win=32768 ns3::TcpOptionTS(6446;6443) ns3::TcpOptionEnd(EOL))
- 6.45893 /NodeList/3/DeviceList/2/$ns3::PointToPointNetDevice/TxQueue/Dequeue ns3::PppHeader (Point-to-Point Protocol: IP (0x0021)) ns3::Ipv4Header (tos 0x0 DSCP Default ECN Not-ECT ttl 64 id 3 protocol 17 offset (bytes) 0 flags [none] length: 92 10.0.0.5 > 10.0.0.6) ns3::UdpHeader (length: 72 2152 > 2152) ns3::GtpuHeader ( version=1 [ PT  S  PN ], messageType=255, length=56, teid=2, sequenceNumber=0, nPduNumber=0, nextExtensionType=0) ns3::Ipv4Header (tos 0x0 DSCP Default ECN Not-ECT ttl 64 id 3 protocol 6 offset (bytes) 0 flags [none] length: 52 7.0.0.2 > 1.0.0.2) ns3::TcpHeader (2000 > 49153 [ACK] Seq=1 Ack=1449 Win=32768 ns3::TcpOptionTS(6446;6443) ns3::TcpOptionEnd(EOL))
r 6.45893 /NodeList/1/DeviceList/3/$ns3::PointToPointNetDevice/MacRx ns3::PppHeader (Point-to-Point Protocol: IP (0x0021)) ns3::Ipv4Header (tos 0x0 DSCP Default ECN Not-ECT ttl 64 id 3 protocol 17 offset (bytes) 0 flags [none] length: 92 10.0.0.5 > 10.0.0.6) ns3::UdpHeader (length: 72 2152 > 2152) ns3::GtpuHeader ( version=1 [ PT  S  PN ], messageType=255, length=56, teid=2, sequenceNumber=0, nPduNumber=0, nextExtensionType=0) ns3::Ipv4Header (tos 0x0 DSCP Default ECN Not-ECT ttl 64 id 3 protocol 6 offset (bytes) 0 flags [none] length: 52 7.0.0.2 > 1.0.0.2) ns3::TcpHeader (2000 > 49153 [ACK] Seq=1 Ack=1449 Win=32768 ns3::TcpOptionTS(6446;6443) ns3::TcpOptionEnd(EOL))
+ 6.45893 /NodeList/1/DeviceList/2/$ns3::PointToPointNetDevice/TxQueue/Enqueue ns3::PppHeader (Point-to-Point Protocol: IP (0x0021)) ns3::Ipv4Header (tos 0x0 DSCP Default ECN Not-ECT ttl 63 id 3 protocol 6 offset (bytes) 0 flags [none] length: 52 7.0.0.2 > 1.0.0.2) ns3::TcpHeader (2000 > 49153 [ACK] Seq=1 Ack=1449 Win=32768 ns3::TcpOptionTS(6446;6443) ns3::TcpOptionEnd(EOL))
- 6.45893 /NodeList/1/DeviceList/2/$ns3::PointToPointNetDevice/TxQueue/Dequeue ns3::PppHeader (Point-to-Point Protocol: IP (0x0021)) ns3::Ipv4Header (tos 0x0 DSCP Default ECN Not-ECT ttl 63 id 3 protocol 6 offset (bytes) 0 flags [none] length: 52 7.0.0.2 > 1.0.0.2) ns3::TcpHeader (2000 > 49153 [ACK] Seq=1 Ack=1449 Win=32768 ns3::TcpOptionTS(6446;6443) ns3::TcpOptionEnd(EOL))
r 6.45894 /NodeList/2/DeviceList/1/$ns3::PointToPointNetDevice/MacRx ns3::PppHeader (Point-to-Point Protocol: IP (0x0021)) ns3::Ipv4Header (tos 0x0 DSCP Default ECN Not-ECT ttl 63 id 3 protocol 6 offset (bytes) 0 flags [none] length: 52 7.0.0.2 > 1.0.0.2) ns3::TcpHeader (2000 > 49153 [ACK] Seq=1 Ack=1449 Win=32768 ns3::TcpOptionTS(6446;6443) ns3::TcpOptionEnd(EOL))
+ 9.08893 /NodeList/3/DeviceList/2/$ns3::PointToPointNetDevice/TxQueue/Enqueue ns3::PppHeader (Point-to-Point Protocol: IP (0x0021)) ns3::Ipv4Header (tos 0x0 DSCP Default ECN Not-ECT ttl 64 id 4 protocol 17 offset (bytes) 0 flags [none] length: 1540 10.0.0.5 > 10.0.0.6) ns3::UdpHeader (length: 1520 2152 > 2152) ns3::GtpuHeader ( version=1 [ PT  S  PN ], messageType=255, length=1504, teid=2, sequenceNumber=0, nPduNumber=0, nextExtensionType=0) ns3::Ipv4Header (tos 0x0 DSCP Default ECN Not-ECT ttl 64 id 4 protocol 6 offset (bytes) 0 flags [none] length: 1500 7.0.0.2 > 1.0.0.2) ns3::TcpHeader (49153 > 110 [ACK] Seq=1 Ack=1 Win=32768 ns3::TcpOptionTS(9076;1011) ns3::TcpOptionEnd(EOL)) Payload (size=1448)
- 9.08893 /NodeList/3/DeviceList/2/$ns3::PointToPointNetDevice/TxQueue/Dequeue ns3::PppHeader (Point-to-Point Protocol: IP (0x0021)) ns3::Ipv4Header (tos 0x0 DSCP Default ECN Not-ECT ttl 64 id 4 protocol 17 offset (bytes) 0 flags [none] length: 1540 10.0.0.5 > 10.0.0.6) ns3::UdpHeader (length: 1520 2152 > 2152) ns3::GtpuHeader ( version=1 [ PT  S  PN ], messageType=255, length=1504, teid=2, sequenceNumber=0, nPduNumber=0, nextExtensionType=0) ns3::Ipv4Header (tos 0x0 DSCP Default ECN Not-ECT ttl 64 id 4 protocol 6 offset (bytes) 0 flags [none] length: 1500 7.0.0.2 > 1.0.0.2) ns3::TcpHeader (49153 > 110 [ACK] Seq=1 Ack=1 Win=32768 ns3::TcpOptionTS(9076;1011) ns3::TcpOptionEnd(EOL)) Payload (size=1448)
r 9.08893 /NodeList/1/DeviceList/3/$ns3::PointToPointNetDevice/MacRx ns3::PppHeader (Point-to-Point Protocol: IP (0x0021)) ns3::Ipv4Header (tos 0x0 DSCP Default ECN Not-ECT ttl 64 id 4 protocol 17 offset (bytes) 0 flags [none] length: 1540 10.0.0.5 > 10.0.0.6) ns3::UdpHeader (length: 1520 2152 > 2152) ns3::GtpuHeader ( version=1 [ PT  S  PN ], messageType=255, length=1504, teid=2, sequenceNumber=0, nPduNumber=0, nextExtensionType=0) ns3::Ipv4Header (tos 0x0 DSCP Default ECN Not-ECT ttl 64 id 4 protocol 6 offset (bytes) 0 flags [none] length: 1500 7.0.0.2 > 1.0.0.2) ns3::TcpHeader (49153 > 110 [ACK] Seq=1 Ack=1 Win=32768 ns3::TcpOptionTS(9076;1011) ns3::TcpOptionEnd(EOL)) Payload (size=1448)
+ 9.08893 /NodeList/1/DeviceList/2/$ns3::PointToPointNetDevice/TxQueue/Enqueue ns3::PppHeader (Point-to-Point Protocol: IP (0x0021)) ns3::Ipv4Header (tos 0x0 DSCP Default ECN Not-ECT ttl 63 id 4 protocol 6 offset (bytes) 0 flags [none] length: 1500 7.0.0.2 > 1.0.0.2) ns3::TcpHeader (49153 > 110 [ACK] Seq=1 Ack=1 Win=32768 ns3::TcpOptionTS(9076;1011) ns3::TcpOptionEnd(EOL)) Payload (size=1448)
- 9.08893 /NodeList/1/DeviceList/2/$ns3::PointToPointNetDevice/TxQueue/Dequeue ns3::PppHeader (Point-to-Point Protocol: IP (0x0021)) ns3::Ipv4Header (tos 0x0 DSCP Default ECN Not-ECT ttl 63 id 4 protocol 6 offset (bytes) 0 flags [none] length: 1500 7.0.0.2 > 1.0.0.2) ns3::TcpHeader (49153 > 110 [ACK] Seq=1 Ack=1 Win=32768 ns3::TcpOptionTS(9076;1011) ns3::TcpOptionEnd(EOL)) Payload (size=1448)